Program Version,EnergyPlus, Version 24.1.0-9d7789a3ac, YMD=2025.03.20 14:43
1,5,Environment Title[],Latitude[deg],Longitude[deg],Time Zone[],Elevation[m]
2,8,Day of Simulation[],Month[],Day of Month[],DST Indicator[1=yes 0=no],Hour[],StartMinute[],EndMinute[],DayType
3,5,Cumulative Day of Simulation[],Month[],Day of Month[],DST Indicator[1=yes 0=no],DayType  ! When Daily Report Variables Requested
4,2,Cumulative Days of Simulation[],Month[]  ! When Monthly Report Variables Requested
5,1,Cumulative Days of Simulation[] ! When Run Period Report Variables Requested
6,1,Calendar Year of Simulation[] ! When Annual Report Variables Requested
7,1,Environment,Site Outdoor Air Drybulb Temperature [C] !TimeStep
8,1,Environment,Site Wind Speed [m/s] !TimeStep
9,1,Environment,Site Wind Direction [deg] !TimeStep
10,1,Environment,Site Diffuse Solar Radiation Rate per Area [W/m2] !TimeStep
205,1,TECHO,Surface Outside Face Incident Solar Radiation Rate per Area [W/m2] !TimeStep
End of Data Dictionary
1,RUN PERIOD 1,  -0.96, -77.83,  -5.00, 595.00
2,1,12, 1, 0, 1, 0.00, 1.00,Sunday
7,19.5
8,0.2
9,289.0
10,0.0
205,0.0
2,1,12, 1, 0, 1, 1.00, 2.00,Sunday
7,19.5
8,0.3
9,291.0
10,0.0
205,0.0
2,1,12, 1, 0, 1, 2.00, 3.00,Sunday
7,19.5
8,0.3
9,280.0
10,0.0
205,0.0
2,1,12, 1, 0, 1, 3.00, 4.00,Sunday
7,19.5
8,0.3
9,275.0
10,0.0
205,0.0
2,1,12, 1, 0, 1, 4.00, 5.00,Sunday
7,19.5
8,0.2
9,283.0
10,0.0
205,0.0
2,1,12, 1, 0, 1, 5.00, 6.00,Sunday
7,19.5
8,0.1
9,298.0
10,0.0
205,0.0
2,1,12, 1, 0, 1, 6.00, 7.00,Sunday
7,19.5
8,0.0
9,248.0
10,0.0
205,0.0
2,1,12, 1, 0, 1, 7.00, 8.00,Sunday
7,19.5
8,0.1
9,319.0
10,0.0
205,0.0
2,1,12, 1, 0, 1, 8.00, 9.00,Sunday
7,19.5
8,0.2
9,316.0
10,0.0
205,0.0
2,1,12, 1, 0, 1, 9.00,10.00,Sunday
7,19.5
8,0.1
9,355.0
10,0.0
205,0.0
2,1,12, 1, 0, 1,10.00,11.00,Sunday
7,19.5
8,0.3
9,26.0
10,0.0
205,0.0
2,1,12, 1, 0, 1,11.00,12.00,Sunday
7,19.5
8,0.4
9,35.0
10,0.0
205,0.0
2,1,12, 1, 0, 1,12.00,13.00,Sunday
7,19.5
8,0.5
9,38.0
10,0.0
205,0.0
2,1,12, 1, 0, 1,13.00,14.00,Sunday
7,19.5
8,0.5
9,45.0
10,0.0
205,0.0
2,1,12, 1, 0, 1,14.00,15.00,Sunday
7,19.5
8,0.5
9,56.0
10,0.0
205,0.0
2,1,12, 1, 0, 1,15.00,16.00,Sunday
7,19.4
8,0.5
9,50.0
10,0.0
205,0.0
2,1,12, 1, 0, 1,16.00,17.00,Sunday
7,19.4
8,0.5
9,40.0
10,0.0
205,0.0
2,1,12, 1, 0, 1,17.00,18.00,Sunday
7,19.4
8,0.4
9,31.0
10,0.0
205,0.0
2,1,12, 1, 0, 1,18.00,19.00,Sunday
7,19.4
8,0.3
9,46.0
10,0.0
205,0.0
2,1,12, 1, 0, 1,19.00,20.00,Sunday
7,19.4
8,0.5
9,51.0
10,0.0
205,0.0
2,1,12, 1, 0, 1,20.00,21.00,Sunday
7,19.4
8,0.4
9,34.0
10,0.0
205,0.0
2,1,12, 1, 0, 1,21.00,22.00,Sunday
7,19.4
8,0.3
9,357.0
10,0.0
205,0.0
2,1,12, 1, 0, 1,22.00,23.00,Sunday
7,19.4
8,0.2
9,330.0
10,0.0
205,0.0
2,1,12, 1, 0, 1,23.00,24.00,Sunday
7,19.4
8,0.4
9,323.0
10,0.0
205,0.0
2,1,12, 1, 0, 1,24.00,25.00,Sunday
7,19.4
8,0.4
9,322.0
10,0.0
205,0.0
2,1,12, 1, 0, 1,25.00,26.00,Sunday
7,19.4
8,0.4
9,317.0
10,0.0
205,0.0
2,1,12, 1, 0, 1,26.00,27.00,Sunday
7,19.4
8,0.3
9,328.0
10,0.0
205,0.0
2,1,12, 1, 0, 1,27.00,28.00,Sunday
7,19.4
8,0.3
9,332.0
10,0.0
205,0.0
2,1,12, 1, 0, 1,28.00,29.00,Sunday
7,19.4
8,0.4
9,333.0
10,0.0
205,0.0
2,1,12, 1, 0, 1,29.00,30.00,Sunday
7,19.4
8,0.3
9,334.0
10,0.0
205,0.0
2,1,12, 1, 0, 1,30.00,31.00,Sunday
7,19.4
8,0.2
9,13.0
10,0.0
205,0.0
2,1,12, 1, 0, 1,31.00,32.00,Sunday
7,19.4
8,0.3
9,24.0
10,0.0
205,0.0
2,1,12, 1, 0, 1,32.00,33.00,Sunday
7,19.4
8,0.3
9,31.0
10,0.0
205,0.0
2,1,12, 1, 0, 1,33.00,34.00,Sunday
7,19.4
8,0.2
9,19.0
10,0.0
205,0.0
2,1,12, 1, 0, 1,34.00,35.00,Sunday
7,19.4
8,0.3
9,44.0
10,0.0
205,0.0
2,1,12, 1, 0, 1,35.00,36.00,Sunday
7,19.4
8,0.4
9,59.0
10,0.0
205,0.0
2,1,12, 1, 0, 1,36.00,37.00,Sunday
7,19.4
8,0.4
9,61.0
10,0.0
205,0.0
2,1,12, 1, 0, 1,37.00,38.00,Sunday
7,19.3
8,0.4
9,81.0
10,0.0
205,0.0
2,1,12, 1, 0, 1,38.00,39.00,Sunday
7,19.3
8,0.4
9,83.0
10,0.0
205,0.0
2,1,12, 1, 0, 1,39.00,40.00,Sunday
7,19.3
8,0.3
9,79.0
10,0.0
205,0.0
2,1,12, 1, 0, 1,40.00,41.00,Sunday
7,19.3
8,0.2
9,24.0
10,0.0
205,0.0
2,1,12, 1, 0, 1,41.00,42.00,Sunday
7,19.2
8,0.2
9,50.0
10,0.0
205,0.0
2,1,12, 1, 0, 1,42.00,43.00,Sunday
7,19.2
8,0.3
9,43.0
10,0.0
205,0.0
2,1,12, 1, 0, 1,43.00,44.00,Sunday
7,19.2
8,0.3
9,2.0
10,0.0
205,0.0
2,1,12, 1, 0, 1,44.00,45.00,Sunday
7,19.2
8,0.3
9,343.0
10,0.0
205,0.0
2,1,12, 1, 0, 1,45.00,46.00,Sunday
7,19.2
8,0.2
9,315.0
10,0.0
205,0.0
2,1,12, 1, 0, 1,46.00,47.00,Sunday
7,19.2
8,0.1
9,312.0
10,0.0
205,0.0
2,1,12, 1, 0, 1,47.00,48.00,Sunday
7,19.2
8,0.1
9,352.0
10,0.0
205,0.0
2,1,12, 1, 0, 1,48.00,49.00,Sunday
7,19.2
8,0.1
9,20.0
10,0.0
205,0.0
2,1,12, 1, 0, 1,49.00,50.00,Sunday
7,19.2
8,0.1
9,46.0
10,0.0
205,0.0
2,1,12, 1, 0, 1,50.00,51.00,Sunday
7,19.2
8,0.1
9,59.0
10,0.0
205,0.0
2,1,12, 1, 0, 1,51.00,52.00,Sunday
7,19.2
8,0.1
9,109.0
10,0.0
205,0.0
2,1,12, 1, 0, 1,52.00,53.00,Sunday
7,19.1
8,0.1
9,191.0
10,0.0
205,0.0
2,1,12, 1, 0, 1,53.00,54.00,Sunday
7,19.1
8,0.2
9,219.0
10,0.0
205,0.0
2,1,12, 1, 0, 1,54.00,55.00,Sunday
7,19.1
8,0.1
9,231.0
10,0.0
205,0.0
2,1,12, 1, 0, 1,55.00,56.00,Sunday
7,19.1
8,0.1
9,46.0
10,0.0
205,0.0
2,1,12, 1, 0, 1,56.00,57.00,Sunday
7,19.1
8,0.2
9,79.0
10,0.0
205,0.0
2,1,12, 1, 0, 1,57.00,58.00,Sunday
7,19.1
8,0.3
9,60.0
10,0.0
205,0.0
2,1,12, 1, 0, 1,58.00,59.00,Sunday
7,19.1
8,0.4
9,57.0
10,0.0
205,0.0
2,1,12, 1, 0, 1,59.00,60.00,Sunday
7,19.2
8,0.3
9,63.0
10,0.0
205,0.0
2,1,12, 1, 0, 2, 0.00, 1.00,Sunday
7,19.1
8,0.3
9,63.0
10,0.0
205,0.0
2,1,12, 1, 0, 2, 1.00, 2.00,Sunday
7,19.1
8,0.2
9,65.0
10,0.0
205,0.0
2,1,12, 1, 0, 2, 2.00, 3.00,Sunday
7,19.1
8,0.2
9,67.0
10,0.0
205,0.0
2,1,12, 1, 0, 2, 3.00, 4.00,Sunday
7,19.1
8,0.2
9,74.0
10,0.0
205,0.0
2,1,12, 1, 0, 2, 4.00, 5.00,Sunday
7,19.1
8,0.1
9,87.0
10,0.0
205,0.0
2,1,12, 1, 0, 2, 5.00, 6.00,Sunday
7,19.1
8,0.1
9,9.0
10,0.0
205,0.0
2,1,12, 1, 0, 2, 6.00, 7.00,Sunday
7,19.1
8,0.3
9,357.0
10,0.0
205,0.0
2,1,12, 1, 0, 2, 7.00, 8.00,Sunday
7,19.1
8,0.3
9,10.0
10,0.0
205,0.0
2,1,12, 1, 0, 2, 8.00, 9.00,Sunday
7,19.1
8,0.3
9,13.0
10,0.0
205,0.0
2,1,12, 1, 0, 2, 9.00,10.00,Sunday
7,19.1
8,0.4
9,1.0
10,0.0
205,0.0
2,1,12, 1, 0, 2,10.00,11.00,Sunday
7,19.1
8,0.3
9,343.0
10,0.0
205,0.0
2,1,12, 1, 0, 2,11.00,12.00,Sunday
7,19.1
8,0.2
9,323.0
10,0.0
205,0.0
2,1,12, 1, 0, 2,12.00,13.00,Sunday
7,19.1
8,0.2
9,312.0
10,0.0
205,0.0
2,1,12, 1, 0, 2,13.00,14.00,Sunday
7,19.1
8,0.3
9,310.0
10,0.0
205,0.0
2,1,12, 1, 0, 2,14.00,15.00,Sunday
7,19.1
8,0.4
9,313.0
10,0.0
205,0.0
2,1,12, 1, 0, 2,15.00,16.00,Sunday
7,19.1
8,0.5
9,304.0
10,0.0
205,0.0
2,1,12, 1, 0, 2,16.00,17.00,Sunday
7,19.1
8,0.4
9,301.0
10,0.0
205,0.0
2,1,12, 1, 0, 2,17.00,18.00,Sunday
7,19.1
8,0.3
9,303.0
10,0.0
205,0.0
2,1,12, 1, 0, 2,18.00,19.00,Sunday
7,19.1
8,0.3
9,327.0
10,0.0
205,0.0
2,1,12, 1, 0, 2,19.00,20.00,Sunday
7,19.1
8,0.3
9,335.0
10,0.0
205,0.0
2,1,12, 1, 0, 2,20.00,21.00,Sunday
7,19.1
8,0.4
9,339.0
10,0.0
205,0.0
2,1,12, 1, 0, 2,21.00,22.00,Sunday
7,19.1
8,0.3
9,343.0
10,0.0
205,0.0
2,1,12, 1, 0, 2,22.00,23.00,Sunday
7,19.1
8,0.3
9,343.0
10,0.0
205,0.0
2,1,12, 1, 0, 2,23.00,24.00,Sunday
7,19.1
8,0.3
9,355.0
10,0.0
205,0.0
2,1,12, 1, 0, 2,24.00,25.00,Sunday
7,19.0
8,0.2
9,331.0
10,0.0
205,0.0
2,1,12, 1, 0, 2,25.00,26.00,Sunday
7,19.0
8,0.2
9,333.0
10,0.0
205,0.0
2,1,12, 1, 0, 2,26.00,27.00,Sunday
7,19.0
8,0.2
9,349.0
10,0.0
205,0.0
2,1,12, 1, 0, 2,27.00,28.00,Sunday
7,19.0
8,0.2
9,351.0
10,0.0
205,0.0
2,1,12, 1, 0, 2,28.00,29.00,Sunday
7,19.0
8,0.2
9,323.0
10,0.0
205,0.0
2,1,12, 1, 0, 2,29.00,30.00,Sunday
7,19.0
8,0.2
9,337.0
10,0.0
205,0.0
2,1,12, 1, 0, 2,30.00,31.00,Sunday
7,19.0
8,0.3
9,35.0
10,0.0
205,0.0
2,1,12, 1, 0, 2,31.00,32.00,Sunday
7,19.0
8,0.6
9,62.0
10,0.0
205,0.0
2,1,12, 1, 0, 2,32.00,33.00,Sunday
7,19.0
8,0.7
9,59.0
10,0.0
205,0.0
2,1,12, 1, 0, 2,33.00,34.00,Sunday
7,19.0
8,0.6
9,64.0
10,0.0
205,0.0
2,1,12, 1, 0, 2,34.00,35.00,Sunday
7,19.0
8,0.5
9,67.0
10,0.0
205,0.0
2,1,12, 1, 0, 2,35.00,36.00,Sunday
7,18.9
8,0.4
9,79.0
10,0.0
205,0.0
2,1,12, 1, 0, 2,36.00,37.00,Sunday
7,18.9
8,0.3
9,73.0
10,0.0
205,0.0
2,1,12, 1, 0, 2,37.00,38.00,Sunday
7,18.9
8,0.3
9,53.0
10,0.0
205,0.0
2,1,12, 1, 0, 2,38.00,39.00,Sunday
7,18.9
8,0.2
9,55.0
10,0.0
205,0.0
2,1,12, 1, 0, 2,39.00,40.00,Sunday
7,18.8
8,0.0
9,356.0
10,0.0
205,0.0
2,1,12, 1, 0, 2,40.00,41.00,Sunday
7,18.8
8,0.1
9,218.0
10,0.0
205,0.0
2,1,12, 1, 0, 2,41.00,42.00,Sunday
7,18.8
8,0.2
9,209.0
10,0.0
205,0.0
2,1,12, 1, 0, 2,42.00,43.00,Sunday
7,18.8
8,0.2
9,226.0
10,0.0
205,0.0
2,1,12, 1, 0, 2,43.00,44.00,Sunday
7,18.8
8,0.1
9,287.0
10,0.0
205,0.0
2,1,12, 1, 0, 2,44.00,45.00,Sunday
7,18.8
8,0.1
9,348.0
10,0.0
205,0.0
2,1,12, 1, 0, 2,45.00,46.00,Sunday
7,18.8
8,0.1
9,23.0
10,0.0
205,0.0
2,1,12, 1, 0, 2,46.00,47.00,Sunday
7,18.8
8,0.2
9,15.0
10,0.0
205,0.0
2,1,12, 1, 0, 2,47.00,48.00,Sunday
7,18.8
8,0.2
9,31.0
10,0.0
205,0.0
2,1,12, 1, 0, 2,48.00,49.00,Sunday
7,18.8
8,0.2
9,27.0
10,0.0
205,0.0
2,1,12, 1, 0, 2,49.00,50.00,Sunday
7,18.8
8,0.2
9,312.0
10,0.0
205,0.0
2,1,12, 1, 0, 2,50.00,51.00,Sunday
7,18.8
8,0.4
9,287.0
10,0.0
205,0.0
2,1,12, 1, 0, 2,51.00,52.00,Sunday
7,18.8
8,0.5
9,280.0
10,0.0
205,0.0
2,1,12, 1, 0, 2,52.00,53.00,Sunday
7,18.8
8,0.6
9,267.0
10,0.0
205,0.0
2,1,12, 1, 0, 2,53.00,54.00,Sunday
7,18.8
8,0.2
9,295.0
10,0.0
205,0.0
2,1,12, 1, 0, 2,54.00,55.00,Sunday
7,18.8
8,0.3
9,17.0
10,0.0
205,0.0
2,1,12, 1, 0, 2,55.00,56.00,Sunday
7,18.8
8,0.4
9,31.0
10,0.0
205,0.0
2,1,12, 1, 0, 2,56.00,57.00,Sunday
7,18.8
8,0.2
9,15.0
10,0.0
205,0.0
2,1,12, 1, 0, 2,57.00,58.00,Sunday
7,18.9
8,0.2
9,340.0
10,0.0
205,0.0
2,1,12, 1, 0, 2,58.00,59.00,Sunday
7,18.9
8,0.2
9,356.0
10,0.0
205,0.0
2,1,12, 1, 0, 2,59.00,60.00,Sunday
7,18.9
8,0.2
9,356.0
10,0.0
205,0.0
2,1,12, 1, 0, 3, 0.00, 1.00,Sunday
7,18.8
8,0.2
9,283.0
10,0.0
205,0.0
2,1,12, 1, 0, 3, 1.00, 2.00,Sunday
7,18.8
8,0.3
9,296.0
10,0.0
205,0.0
2,1,12, 1, 0, 3, 2.00, 3.00,Sunday
7,18.8
8,0.2
9,257.0
10,0.0
205,0.0
2,1,12, 1, 0, 3, 3.00, 4.00,Sunday
7,18.8
8,0.3
9,262.0
10,0.0
205,0.0
2,1,12, 1, 0, 3, 4.00, 5.00,Sunday
7,18.8
8,0.3
9,317.0
10,0.0
205,0.0
2,1,12, 1, 0, 3, 5.00, 6.00,Sunday
7,18.8
8,0.5
9,356.0
10,0.0
205,0.0
2,1,12, 1, 0, 3, 6.00, 7.00,Sunday
7,18.8
8,0.5
9,40.0
10,0.0
205,0.0
2,1,12, 1, 0, 3, 7.00, 8.00,Sunday
7,18.8
8,0.2
9,349.0
10,0.0
205,0.0
2,1,12, 1, 0, 3, 8.00, 9.00,Sunday
7,18.8
8,0.3
9,312.0
10,0.0
205,0.0
2,1,12, 1, 0, 3, 9.00,10.00,Sunday
7,18.8
8,0.2
9,28.0
10,0.0
205,0.0
2,1,12, 1, 0, 3,10.00,11.00,Sunday
7,18.8
8,0.3
9,55.0
10,0.0
205,0.0
2,1,12, 1, 0, 3,11.00,12.00,Sunday
7,18.8
8,0.2
9,49.0
10,0.0
205,0.0
2,1,12, 1, 0, 3,12.00,13.00,Sunday
7,18.8
8,0.1
9,69.0
10,0.0
205,0.0
2,1,12, 1, 0, 3,13.00,14.00,Sunday
7,18.7
8,0.1
9,53.0
10,0.0
205,0.0
2,1,12, 1, 0, 3,14.00,15.00,Sunday
7,18.7
8,0.3
9,46.0
10,0.0
205,0.0
2,1,12, 1, 0, 3,15.00,16.00,Sunday
7,18.7
8,0.2
9,42.0
10,0.0
205,0.0
2,1,12, 1, 0, 3,16.00,17.00,Sunday
7,18.7
8,0.2
9,50.0
10,0.0
205,0.0
2,1,12, 1, 0, 3,17.00,18.00,Sunday
7,18.7
8,0.4
9,49.0
10,0.0
205,0.0
2,1,12, 1, 0, 3,18.00,19.00,Sunday
7,18.7
8,0.4
9,48.0
10,0.0
205,0.0
2,1,12, 1, 0, 3,19.00,20.00,Sunday
7,18.7
8,0.3
9,45.0
10,0.0
205,0.0
2,1,12, 1, 0, 3,20.00,21.00,Sunday
7,18.6
8,0.1
9,74.0
10,0.0
205,0.0
2,1,12, 1, 0, 3,21.00,22.00,Sunday
7,18.6
8,0.1
9,72.0
10,0.0
205,0.0
2,1,12, 1, 0, 3,22.00,23.00,Sunday
7,18.6
8,0.4
9,42.0
10,0.0
205,0.0
2,1,12, 1, 0, 3,23.00,24.00,Sunday
7,18.6
8,0.3
9,15.0
10,0.0
205,0.0
2,1,12, 1, 0, 3,24.00,25.00,Sunday
7,18.6
8,0.2
9,315.0
10,0.0
205,0.0
2,1,12, 1, 0, 3,25.00,26.00,Sunday
7,18.6
8,0.4
9,305.0
10,0.0
205,0.0
2,1,12, 1, 0, 3,26.00,27.00,Sunday
7,18.6
8,0.2
9,337.0
10,0.0
205,0.0
2,1,12, 1, 0, 3,27.00,28.00,Sunday
7,18.6
8,0.2
9,39.0
10,0.0
205,0.0
2,1,12, 1, 0, 3,28.00,29.00,Sunday
7,18.6
8,0.1
9,37.0
10,0.0
205,0.0
2,1,12, 1, 0, 3,29.00,30.00,Sunday
7,18.6
8,0.3
9,32.0
10,0.0
205,0.0
2,1,12, 1, 0, 3,30.00,31.00,Sunday
7,18.6
8,0.4
9,35.0
10,0.0
205,0.0
2,1,12, 1, 0, 3,31.00,32.00,Sunday
7,18.6
8,0.4
9,29.0
10,0.0
205,0.0
2,1,12, 1, 0, 3,32.00,33.00,Sunday
7,18.6
8,0.4
9,12.0
10,0.0
205,0.0
2,1,12, 1, 0, 3,33.00,34.00,Sunday
7,18.6
8,0.3
9,355.0
10,0.0
205,0.0
2,1,12, 1, 0, 3,34.00,35.00,Sunday
7,18.6
8,0.4
9,357.0
10,0.0
205,0.0
2,1,12, 1, 0, 3,35.00,36.00,Sunday
7,18.6
8,0.3
9,25.0
10,0.0
205,0.0
2,1,12, 1, 0, 3,36.00,37.00,Sunday
7,18.6
8,0.4
9,59.0
10,0.0
205,0.0
2,1,12, 1, 0, 3,37.00,38.00,Sunday
7,18.6
8,0.5
9,57.0
10,0.0
205,0.0
2,1,12, 1, 0, 3,38.00,39.00,Sunday
7,18.6
8,0.4
9,57.0
10,0.0
205,0.0
2,1,12, 1, 0, 3,39.00,40.00,Sunday
7,18.6
8,0.5
9,56.0
10,0.0
205,0.0
2,1,12, 1, 0, 3,40.00,41.00,Sunday
7,18.6
8,0.2
9,54.0
10,0.0
205,0.0
2,1,12, 1, 0, 3,41.00,42.00,Sunday
7,18.6
8,0.2
9,29.0
10,0.0
205,0.0
2,1,12, 1, 0, 3,42.00,43.00,Sunday
7,18.5
8,0.2
9,339.0
10,0.0
205,0.0
2,1,12, 1, 0, 3,43.00,44.00,Sunday
7,18.5
8,0.2
9,323.0
10,0.0
205,0.0
2,1,12, 1, 0, 3,44.00,45.00,Sunday
7,18.5
8,0.3
9,340.0
10,0.0
205,0.0
2,1,12, 1, 0, 3,45.00,46.00,Sunday
7,18.5
8,0.3
9,341.0
10,0.0
205,0.0
2,1,12, 1, 0, 3,46.00,47.00,Sunday
7,18.5
8,0.4
9,329.0
10,0.0
205,0.0
2,1,12, 1, 0, 3,47.00,48.00,Sunday
7,18.5
8,0.4
9,324.0
10,0.0
205,0.0
2,1,12, 1, 0, 3,48.00,49.00,Sunday
7,18.5
8,0.5
9,318.0
10,0.0
205,0.0
2,1,12, 1, 0, 3,49.00,50.00,Sunday
7,18.5
8,0.7
9,320.0
10,0.0
205,0.0
2,1,12, 1, 0, 3,50.00,51.00,Sunday
7,18.6
8,0.6
9,309.0
10,0.0
205,0.0
2,1,12, 1, 0, 3,51.00,52.00,Sunday
7,18.6
8,0.4
9,286.0
10,0.0
205,0.0
2,1,12, 1, 0, 3,52.00,53.00,Sunday
7,18.6
8,0.4
9,282.0
10,0.0
205,0.0
2,1,12, 1, 0, 3,53.00,54.00,Sunday
7,18.6
8,0.4
9,298.0
10,0.0
205,0.0
2,1,12, 1, 0, 3,54.00,55.00,Sunday
7,18.6
8,0.4
9,301.0
10,0.0
205,0.0
2,1,12, 1, 0, 3,55.00,56.00,Sunday
7,18.6
8,0.5
9,313.0
10,0.0
205,0.0
2,1,12, 1, 0, 3,56.00,57.00,Sunday
7,18.6
8,0.2
9,315.0
10,0.0
205,0.0
2,1,12, 1, 0, 3,57.00,58.00,Sunday
7,18.6
8,0.2
9,338.0
10,0.0
205,0.0
2,1,12, 1, 0, 3,58.00,59.00,Sunday
7,18.6
8,0.2
9,18.0
10,0.0
205,0.0
2,1,12, 1, 0, 3,59.00,60.00,Sunday
7,18.6
8,0.4
9,45.0
10,0.0
205,0.0
2,1,12, 1, 0, 4, 0.00, 1.00,Sunday
7,18.6
8,0.4
9,65.0
10,0.0
205,0.0
2,1,12, 1, 0, 4, 1.00, 2.00,Sunday
7,18.5
8,0.4
9,60.0
10,0.0
205,0.0
2,1,12, 1, 0, 4, 2.00, 3.00,Sunday
7,18.5
8,0.3
9,44.0
10,0.0
205,0.0
2,1,12, 1, 0, 4, 3.00, 4.00,Sunday
7,18.5
8,0.2
9,11.0
10,0.0
205,0.0
2,1,12, 1, 0, 4, 4.00, 5.00,Sunday
7,18.5
8,0.2
9,354.0
10,0.0
205,0.0
2,1,12, 1, 0, 4, 5.00, 6.00,Sunday
7,18.5
8,0.1
9,261.0
10,0.0
205,0.0
2,1,12, 1, 0, 4, 6.00, 7.00,Sunday
7,18.5
8,0.1
9,138.0
10,0.0
205,0.0
2,1,12, 1, 0, 4, 7.00, 8.00,Sunday
7,18.4
8,0.2
9,97.0
10,0.0
205,0.0
2,1,12, 1, 0, 4, 8.00, 9.00,Sunday
7,18.4
8,0.2
9,79.0
10,0.0
205,0.0
2,1,12, 1, 0, 4, 9.00,10.00,Sunday
7,18.4
8,0.4
9,98.0
10,0.0
205,0.0
2,1,12, 1, 0, 4,10.00,11.00,Sunday
7,18.4
8,0.6
9,102.0
10,0.0
205,0.0
2,1,12, 1, 0, 4,11.00,12.00,Sunday
7,18.4
8,0.6
9,97.0
10,0.0
205,0.0
2,1,12, 1, 0, 4,12.00,13.00,Sunday
7,18.4
8,0.2
9,56.0
10,0.0
205,0.0
2,1,12, 1, 0, 4,13.00,14.00,Sunday
7,18.4
8,0.1
9,346.0
10,0.0
205,0.0
2,1,12, 1, 0, 4,14.00,15.00,Sunday
7,18.4
8,0.3
9,326.0
10,0.0
205,0.0
2,1,12, 1, 0, 4,15.00,16.00,Sunday
7,18.4
8,0.4
9,324.0
10,0.0
205,0.0
2,1,12, 1, 0, 4,16.00,17.00,Sunday
7,18.4
8,0.6
9,321.0
10,0.0
205,0.0
2,1,12, 1, 0, 4,17.00,18.00,Sunday
7,18.4
8,0.5
9,308.0
10,0.0
205,0.0
2,1,12, 1, 0, 4,18.00,19.00,Sunday
7,18.4
8,0.3
9,273.0
10,0.0
205,0.0
2,1,12, 1, 0, 4,19.00,20.00,Sunday
7,18.4
8,0.3
9,278.0
10,0.0
205,0.0
2,1,12, 1, 0, 4,20.00,21.00,Sunday
7,18.4
8,0.3
9,272.0
10,0.0
205,0.0
2,1,12, 1, 0, 4,21.00,22.00,Sunday
7,18.4
8,0.3
9,277.0
10,0.0
205,0.0
2,1,12, 1, 0, 4,22.00,23.00,Sunday
7,18.4
8,0.4
9,280.0
10,0.0
205,0.0
2,1,12, 1, 0, 4,23.00,24.00,Sunday
7,18.4
8,0.3
9,295.0
10,0.0
205,0.0
2,1,12, 1, 0, 4,24.00,25.00,Sunday
7,18.4
8,0.3
9,324.0
10,0.0
205,0.0
2,1,12, 1, 0, 4,25.00,26.00,Sunday
7,18.4
8,0.3
9,338.0
10,0.0
205,0.0
2,1,12, 1, 0, 4,26.00,27.00,Sunday
7,18.4
8,0.2
9,332.0
10,0.0
205,0.0
2,1,12, 1, 0, 4,27.00,28.00,Sunday
7,18.4
8,0.2
9,355.0
10,0.0
205,0.0
2,1,12, 1, 0, 4,28.00,29.00,Sunday
7,18.4
8,0.2
9,20.0
10,0.0
205,0.0
2,1,12, 1, 0, 4,29.00,30.00,Sunday
7,18.4
8,0.2
9,32.0
10,0.0
205,0.0
2,1,12, 1, 0, 4,30.00,31.00,Sunday
7,18.4
8,0.2
9,8.0
10,0.0
205,0.0
2,1,12, 1, 0, 4,31.00,32.00,Sunday
7,18.4
8,0.1
9,5.0
10,0.0
205,0.0
2,1,12, 1, 0, 4,32.00,33.00,Sunday
7,18.4
8,0.2
9,24.0
10,0.0
205,0.0
2,1,12, 1, 0, 4,33.00,34.00,Sunday
7,18.4
8,0.2
9,7.0
10,0.0
205,0.0
2,1,12, 1, 0, 4,34.00,35.00,Sunday
7,18.4
8,0.4
9,16.0
10,0.0
205,0.0
2,1,12, 1, 0, 4,35.00,36.00,Sunday
7,18.4
8,0.5
9,41.0
10,0.0
205,0.0
2,1,12, 1, 0, 4,36.00,37.00,Sunday
7,18.4
8,0.6
9,43.0
10,0.0
205,0.0
2,1,12, 1, 0, 4,37.00,38.00,Sunday
7,18.4
8,0.4
9,41.0
10,0.0
205,0.0
2,1,12, 1, 0, 4,38.00,39.00,Sunday
7,18.4
8,0.4
9,31.0
10,0.0
205,0.0
2,1,12, 1, 0, 4,39.00,40.00,Sunday
7,18.4
8,0.3
9,17.0
10,0.0
205,0.0
2,1,12, 1, 0, 4,40.00,41.00,Sunday
7,18.4
8,0.1
9,24.0
10,0.0
205,0.0
2,1,12, 1, 0, 4,41.00,42.00,Sunday
7,18.4
8,0.2
9,74.0
10,0.0
205,0.0
2,1,12, 1, 0, 4,42.00,43.00,Sunday
7,18.4
8,0.3
9,82.0
10,0.0
205,0.0
2,1,12, 1, 0, 4,43.00,44.00,Sunday
7,18.4
8,0.3
9,101.0
10,0.0
205,0.0
2,1,12, 1, 0, 4,44.00,45.00,Sunday
7,18.3
8,0.2
9,121.0
10,0.0
205,0.0
2,1,12, 1, 0, 4,45.00,46.00,Sunday
7,18.3
8,0.2
9,129.0
10,0.0
205,0.0
2,1,12, 1, 0, 4,46.00,47.00,Sunday
7,18.3
8,0.2
9,98.0
10,0.0
205,0.0
2,1,12, 1, 0, 4,47.00,48.00,Sunday
7,18.3
8,0.2
9,63.0
10,0.0
205,0.0
2,1,12, 1, 0, 4,48.00,49.00,Sunday
7,18.3
8,0.3
9,51.0
10,0.0
205,0.0
2,1,12, 1, 0, 4,49.00,50.00,Sunday
7,18.3
8,0.4
9,59.0
10,0.0
205,0.0
2,1,12, 1, 0, 4,50.00,51.00,Sunday
7,18.3
8,0.4
9,45.0
10,0.0
205,0.0
2,1,12, 1, 0, 4,51.00,52.00,Sunday
7,18.3
8,0.4
9,17.0
10,0.0
205,0.0
2,1,12, 1, 0, 4,52.00,53.00,Sunday
7,18.3
8,0.3
9,347.0
10,0.0
205,0.0
2,1,12, 1, 0, 4,53.00,54.00,Sunday
7,18.3
8,0.3
9,329.0
10,0.0
205,0.0
2,1,12, 1, 0, 4,54.00,55.00,Sunday
7,18.3
8,0.2
9,336.0
10,0.0
205,0.0
2,1,12, 1, 0, 4,55.00,56.00,Sunday
7,18.3
8,0.2
9,335.0
10,0.0
205,0.0
2,1,12, 1, 0, 4,56.00,57.00,Sunday
7,18.3
8,0.4
9,319.0
10,0.0
205,0.0
2,1,12, 1, 0, 4,57.00,58.00,Sunday
7,18.3
8,0.6
9,325.0
10,0.0
205,0.0
2,1,12, 1, 0, 4,58.00,59.00,Sunday
7,18.4
8,0.6
9,324.0
10,0.0
205,0.0
2,1,12, 1, 0, 4,59.00,60.00,Sunday
7,18.4
8,0.6
9,322.0
10,0.0
205,0.0
2,1,12, 1, 0, 5, 0.00, 1.00,Sunday
7,18.4
8,0.6
9,311.0
10,0.0
205,0.0
2,1,12, 1, 0, 5, 1.00, 2.00,Sunday
7,18.4
8,0.4
9,304.0
10,0.0
205,0.0
2,1,12, 1, 0, 5, 2.00, 3.00,Sunday
7,18.4
8,0.4
9,308.0
10,0.0
205,0.0
2,1,12, 1, 0, 5, 3.00, 4.00,Sunday
7,18.4
8,0.4
9,310.0
10,0.0
205,0.0
2,1,12, 1, 0, 5, 4.00, 5.00,Sunday
7,18.4
8,0.4
9,299.0
10,0.0
205,0.0
2,1,12, 1, 0, 5, 5.00, 6.00,Sunday
7,18.4
8,0.5
9,315.0
10,0.0
205,0.0
2,1,12, 1, 0, 5, 6.00, 7.00,Sunday
7,18.4
8,0.7
9,321.0
10,0.0
205,0.0
2,1,12, 1, 0, 5, 7.00, 8.00,Sunday
7,18.3
8,0.5
9,322.0
10,0.0
205,0.0
2,1,12, 1, 0, 5, 8.00, 9.00,Sunday
7,18.3
8,0.3
9,16.0
10,0.0
205,0.0
2,1,12, 1, 0, 5, 9.00,10.00,Sunday
7,18.3
8,0.3
9,59.0
10,0.0
205,0.0
2,1,12, 1, 0, 5,10.00,11.00,Sunday
7,18.3
8,0.4
9,79.0
10,0.0
205,0.0
2,1,12, 1, 0, 5,11.00,12.00,Sunday
7,18.3
8,0.3
9,77.0
10,0.0
205,0.0
2,1,12, 1, 0, 5,12.00,13.00,Sunday
7,18.3
8,0.4
9,97.0
10,0.0
205,0.0
2,1,12, 1, 0, 5,13.00,14.00,Sunday
7,18.3
8,0.4
9,96.0
10,0.0
205,0.0
2,1,12, 1, 0, 5,14.00,15.00,Sunday
7,18.2
8,0.3
9,61.0
10,0.0
205,0.0
2,1,12, 1, 0, 5,15.00,16.00,Sunday
7,18.2
8,0.4
9,27.0
10,0.0
205,0.0
2,1,12, 1, 0, 5,16.00,17.00,Sunday
7,18.2
8,0.4
9,8.0
10,0.0
205,0.0
2,1,12, 1, 0, 5,17.00,18.00,Sunday
7,18.2
8,0.3
9,7.0
10,0.0
205,0.0
2,1,12, 1, 0, 5,18.00,19.00,Sunday
7,18.2
8,0.2
9,346.0
10,0.0
205,0.0
2,1,12, 1, 0, 5,19.00,20.00,Sunday
7,18.2
8,0.4
9,343.0
10,0.0
205,0.0
2,1,12, 1, 0, 5,20.00,21.00,Sunday
7,18.2
8,0.3
9,346.0
10,0.0
205,0.0
2,1,12, 1, 0, 5,21.00,22.00,Sunday
7,18.2
8,0.3
9,11.0
10,0.0
205,0.0
2,1,12, 1, 0, 5,22.00,23.00,Sunday
7,18.2
8,0.2
9,44.0
10,0.0
205,0.0
2,1,12, 1, 0, 5,23.00,24.00,Sunday
7,18.2
8,0.3
9,54.0
10,0.0
205,0.0
2,1,12, 1, 0, 5,24.00,25.00,Sunday
7,18.3
8,0.1
9,78.0
10,0.0
205,0.0
2,1,12, 1, 0, 5,25.00,26.00,Sunday
7,18.2
8,0.0
9,157.0
10,0.0
205,0.0
2,1,12, 1, 0, 5,26.00,27.00,Sunday
7,18.2
8,0.2
9,237.0
10,0.0
205,0.0
2,1,12, 1, 0, 5,27.00,28.00,Sunday
7,18.2
8,0.2
9,229.0
10,0.0
205,0.0
2,1,12, 1, 0, 5,28.00,29.00,Sunday
7,18.2
8,0.4
9,249.0
10,0.0
205,0.0
2,1,12, 1, 0, 5,29.00,30.00,Sunday
7,18.2
8,0.4
9,241.0
10,0.0
205,0.0
2,1,12, 1, 0, 5,30.00,31.00,Sunday
7,18.2
8,0.3
9,238.0
10,0.0
205,0.0
2,1,12, 1, 0, 5,31.00,32.00,Sunday
7,18.2
8,0.1
9,262.0
10,0.0
205,0.0
2,1,12, 1, 0, 5,32.00,33.00,Sunday
7,18.2
8,0.1
9,3.0
10,0.0
205,0.0
2,1,12, 1, 0, 5,33.00,34.00,Sunday
7,18.2
8,0.1
9,63.0
10,0.0
205,0.0
2,1,12, 1, 0, 5,34.00,35.00,Sunday
7,18.2
8,0.1
9,101.0
10,0.0
205,0.0
2,1,12, 1, 0, 5,35.00,36.00,Sunday
7,18.2
8,0.1
9,144.0
10,0.0
205,0.0
2,1,12, 1, 0, 5,36.00,37.00,Sunday
7,18.2
8,0.2
9,188.0
10,0.0
205,0.0
2,1,12, 1, 0, 5,37.00,38.00,Sunday
7,18.2
8,0.2
9,206.0
10,0.0
205,0.0
2,1,12, 1, 0, 5,38.00,39.00,Sunday
7,18.2
8,0.3
9,223.0
10,0.0
205,0.0
2,1,12, 1, 0, 5,39.00,40.00,Sunday
7,18.1
8,0.2
9,241.0
10,0.0
205,0.0
2,1,12, 1, 0, 5,40.00,41.00,Sunday
7,18.1
8,0.1
9,304.0
10,0.0
205,0.0
2,1,12, 1, 0, 5,41.00,42.00,Sunday
7,18.1
8,0.2
9,315.0
10,0.0
205,0.0
2,1,12, 1, 0, 5,42.00,43.00,Sunday
7,18.1
8,0.5
9,317.0
10,0.0
205,0.0
2,1,12, 1, 0, 5,43.00,44.00,Sunday
7,18.1
8,0.5
9,314.0
10,0.0
205,0.0
2,1,12, 1, 0, 5,44.00,45.00,Sunday
7,18.2
8,0.3
9,292.0
10,0.0
205,0.0
2,1,12, 1, 0, 5,45.00,46.00,Sunday
7,18.2
8,0.3
9,273.0
10,0.0
205,0.0
2,1,12, 1, 0, 5,46.00,47.00,Sunday
7,18.2
8,0.2
9,318.0
10,0.0
205,0.0
2,1,12, 1, 0, 5,47.00,48.00,Sunday
7,18.2
8,0.3
9,335.0
10,0.0
205,0.0
2,1,12, 1, 0, 5,48.00,49.00,Sunday
7,18.2
8,0.3
9,351.0
10,0.0
205,0.0
2,1,12, 1, 0, 5,49.00,50.00,Sunday
7,18.2
8,0.3
9,30.0
10,0.0
205,0.0
2,1,12, 1, 0, 5,50.00,51.00,Sunday
7,18.2
8,0.2
9,37.0
10,0.0
205,0.0
2,1,12, 1, 0, 5,51.00,52.00,Sunday
7,18.2
8,0.3
9,33.0
10,0.0
205,0.0
2,1,12, 1, 0, 5,52.00,53.00,Sunday
7,18.2
8,0.3
9,34.0
10,0.0
205,0.0
2,1,12, 1, 0, 5,53.00,54.00,Sunday
7,18.2
8,0.1
9,51.0
10,0.0
205,0.0
2,1,12, 1, 0, 5,54.00,55.00,Sunday
7,18.2
8,0.0
9,346.0
10,0.0
205,0.0
2,1,12, 1, 0, 5,55.00,56.00,Sunday
7,18.1
8,0.1
9,22.0
10,0.0
205,0.0
2,1,12, 1, 0, 5,56.00,57.00,Sunday
7,18.1
8,0.3
9,19.0
10,0.0
205,0.0
2,1,12, 1, 0, 5,57.00,58.00,Sunday
7,18.1
8,0.3
9,44.0
10,0.0
205,0.0
2,1,12, 1, 0, 5,58.00,59.00,Sunday
7,18.1
8,0.4
9,43.0
10,0.0
205,0.0
2,1,12, 1, 0, 5,59.00,60.00,Sunday
7,18.1
8,0.4
9,35.0
10,0.0
205,0.0
2,1,12, 1, 0, 6, 0.00, 1.00,Sunday
7,18.1
8,0.5
9,43.0
10,0.0
205,0.0
2,1,12, 1, 0, 6, 1.00, 2.00,Sunday
7,18.1
8,0.5
9,43.0
10,0.0
205,0.0
2,1,12, 1, 0, 6, 2.00, 3.00,Sunday
7,18.1
8,0.4
9,47.0
10,0.0
205,0.0
2,1,12, 1, 0, 6, 3.00, 4.00,Sunday
7,18.1
8,0.3
9,67.0
10,0.0
205,0.0
2,1,12, 1, 0, 6, 4.00, 5.00,Sunday
7,18.1
8,0.1
9,44.0
10,0.0
205,0.0
2,1,12, 1, 0, 6, 5.00, 6.00,Sunday
7,18.1
8,0.2
9,22.0
10,0.0
205,0.0
2,1,12, 1, 0, 6, 6.00, 7.00,Sunday
7,18.1
8,0.4
9,26.0
10,0.0
205,0.0
2,1,12, 1, 0, 6, 7.00, 8.00,Sunday
7,18.1
8,0.4
9,39.0
10,0.0
205,0.0
2,1,12, 1, 0, 6, 8.00, 9.00,Sunday
7,18.1
8,0.3
9,52.0
10,0.0
205,0.0
2,1,12, 1, 0, 6, 9.00,10.00,Sunday
7,18.1
8,0.4
9,55.0
10,0.0
205,0.0
2,1,12, 1, 0, 6,10.00,11.00,Sunday
7,18.2
8,0.4
9,46.0
10,0.0
205,0.0
2,1,12, 1, 0, 6,11.00,12.00,Sunday
7,18.2
8,0.4
9,29.0
10,0.0
205,0.0
2,1,12, 1, 0, 6,12.00,13.00,Sunday
7,18.2
8,0.4
9,42.0
10,0.0
205,0.0
2,1,12, 1, 0, 6,13.00,14.00,Sunday
7,18.2
8,0.5
9,46.0
10,0.0
205,0.0
2,1,12, 1, 0, 6,14.00,15.00,Sunday
7,18.2
8,0.5
9,54.0
10,0.0
205,0.0
2,1,12, 1, 0, 6,15.00,16.00,Sunday
7,18.2
8,0.4
9,58.0
10,0.0
205,0.0
2,1,12, 1, 0, 6,16.00,17.00,Sunday
7,18.2
8,0.4
9,54.0
10,0.0
205,0.0
2,1,12, 1, 0, 6,17.00,18.00,Sunday
7,18.2
8,0.4
9,45.0
10,0.0
205,0.0
2,1,12, 1, 0, 6,18.00,19.00,Sunday
7,18.2
8,0.3
9,50.0
10,0.0
205,0.0
2,1,12, 1, 0, 6,19.00,20.00,Sunday
7,18.2
8,0.2
9,43.0
10,0.0
205,0.0
2,1,12, 1, 0, 6,20.00,21.00,Sunday
7,18.2
8,0.1
9,69.0
10,0.0
205,0.0
2,1,12, 1, 0, 6,21.00,22.00,Sunday
7,18.2
8,0.1
9,51.0
10,0.0
205,0.0
2,1,12, 1, 0, 6,22.00,23.00,Sunday
7,18.2
8,0.2
9,303.0
10,0.0
205,0.0
2,1,12, 1, 0, 6,23.00,24.00,Sunday
7,18.2
8,0.2
9,301.0
10,0.0
205,0.0
2,1,12, 1, 0, 6,24.00,25.00,Sunday
7,18.2
8,0.3
9,317.0
10,0.0
205,0.0
2,1,12, 1, 0, 6,25.00,26.00,Sunday
7,18.2
8,0.4
9,322.0
10,0.0
205,0.0
2,1,12, 1, 0, 6,26.00,27.00,Sunday
7,18.2
8,0.4
9,326.0
10,0.0
205,0.0
2,1,12, 1, 0, 6,27.00,28.00,Sunday
7,18.2
8,0.6
9,321.0
10,0.0
205,0.0
2,1,12, 1, 0, 6,28.00,29.00,Sunday
7,18.3
8,0.6
9,312.0
10,0.0
205,0.0
2,1,12, 1, 0, 6,29.00,30.00,Sunday
7,18.3
8,0.3
9,271.0
10,0.0
205,0.0
2,1,12, 1, 0, 6,30.00,31.00,Sunday
7,18.3
8,0.3
9,283.0
10,0.0
205,0.0
2,1,12, 1, 0, 6,31.00,32.00,Sunday
7,18.3
8,0.3
9,290.0
10,0.0
205,0.0
2,1,12, 1, 0, 6,32.00,33.00,Sunday
7,18.3
8,0.2
9,274.0
10,0.0
205,0.0
2,1,12, 1, 0, 6,33.00,34.00,Sunday
7,18.3
8,0.2
9,235.0
10,0.0
205,0.0
2,1,12, 1, 0, 6,34.00,35.00,Sunday
7,18.3
8,0.2
9,210.0
10,0.0
205,0.0
2,1,12, 1, 0, 6,35.00,36.00,Sunday
7,18.3
8,0.1
9,262.0
10,0.0
205,0.0
2,1,12, 1, 0, 6,36.00,37.00,Sunday
7,18.3
8,0.1
9,351.0
10,0.0
205,0.0
2,1,12, 1, 0, 6,37.00,38.00,Sunday
7,18.3
8,0.2
9,17.0
10,0.0
205,0.0
2,1,12, 1, 0, 6,38.00,39.00,Sunday
7,18.3
8,0.4
9,27.0
10,0.0
205,0.0
2,1,12, 1, 0, 6,39.00,40.00,Sunday
7,18.3
8,0.5
9,37.0
10,0.0
205,0.0
2,1,12, 1, 0, 6,40.00,41.00,Sunday
7,18.3
8,0.3
9,38.0
10,0.0
205,0.0
2,1,12, 1, 0, 6,41.00,42.00,Sunday
7,18.3
8,0.2
9,52.0
10,0.0
205,0.0
2,1,12, 1, 0, 6,42.00,43.00,Sunday
7,18.3
8,0.2
9,81.0
10,0.0
205,0.0
2,1,12, 1, 0, 6,43.00,44.00,Sunday
7,18.3
8,0.3
9,67.0
10,0.0
205,0.0
2,1,12, 1, 0, 6,44.00,45.00,Sunday
7,18.3
8,0.3
9,69.0
10,0.0
205,0.0
2,1,12, 1, 0, 6,45.00,46.00,Sunday
7,18.3
8,0.1
9,71.0
10,0.0
205,0.0
2,1,12, 1, 0, 6,46.00,47.00,Sunday
7,18.3
8,0.0
9,246.0
10,0.0
205,0.0
2,1,12, 1, 0, 6,47.00,48.00,Sunday
7,18.3
8,0.1
9,227.0
10,0.0
205,0.0
2,1,12, 1, 0, 6,48.00,49.00,Sunday
7,18.3
8,0.0
9,186.0
10,0.0
205,0.0
2,1,12, 1, 0, 6,49.00,50.00,Sunday
7,18.3
8,0.1
9,96.0
10,0.0
205,0.0
2,1,12, 1, 0, 6,50.00,51.00,Sunday
7,18.2
8,0.0
9,70.0
10,0.0
205,0.0
2,1,12, 1, 0, 6,51.00,52.00,Sunday
7,18.2
8,0.1
9,9.0
10,0.0
205,0.0
2,1,12, 1, 0, 6,52.00,53.00,Sunday
7,18.2
8,0.2
9,356.0
10,0.0
205,0.0
2,1,12, 1, 0, 6,53.00,54.00,Sunday
7,18.3
8,0.3
9,30.0
10,0.0
205,0.0
2,1,12, 1, 0, 6,54.00,55.00,Sunday
7,18.3
8,0.4
9,59.0
10,0.0
205,0.0
2,1,12, 1, 0, 6,55.00,56.00,Sunday
7,18.3
8,0.4
9,65.0
10,0.0
205,0.0
2,1,12, 1, 0, 6,56.00,57.00,Sunday
7,18.3
8,0.4
9,81.0
10,0.0
205,0.0
2,1,12, 1, 0, 6,57.00,58.00,Sunday
7,18.3
8,0.3
9,69.0
10,0.0
205,0.0
2,1,12, 1, 0, 6,58.00,59.00,Sunday
7,18.3
8,0.2
9,24.0
10,14.82
205,13.199853632571317
2,1,12, 1, 0, 6,59.00,60.00,Sunday
7,18.3
8,0.3
9,292.0
10,15.37
205,13.81696982815755
2,1,12, 1, 0, 7, 0.00, 1.00,Sunday
7,18.3
8,0.4
9,278.0
10,15.41
205,14.079634869496763
2,1,12, 1, 0, 7, 1.00, 2.00,Sunday
7,18.3
8,0.4
9,293.0
10,16.47
205,15.07740721962511
2,1,12, 1, 0, 7, 2.00, 3.00,Sunday
7,18.3
8,0.4
9,296.0
10,16.03
205,16.282651480883366
2,1,12, 1, 0, 7, 3.00, 4.00,Sunday
7,18.4
8,0.4
9,291.0
10,18.09
205,18.658503078479168
2,1,12, 1, 0, 7, 4.00, 5.00,Sunday
7,18.4
8,0.3
9,287.0
10,19.52
205,20.275418644284134
2,1,12, 1, 0, 7, 5.00, 6.00,Sunday
7,18.4
8,0.3
9,307.0
10,20.0
205,21.070537619259646
2,1,12, 1, 0, 7, 6.00, 7.00,Sunday
7,18.4
8,0.3
9,305.0
10,20.44
205,24.274523545839603
2,1,12, 1, 0, 7, 7.00, 8.00,Sunday
7,18.5
8,0.2
9,309.0
10,20.32
205,25.22067034850163
2,1,12, 1, 0, 7, 8.00, 9.00,Sunday
7,18.5
8,0.2
9,323.0
10,21.68
205,27.192985751286702
2,1,12, 1, 0, 7, 9.00,10.00,Sunday
7,18.5
8,0.3
9,333.0
10,23.07
205,26.39871277762007
2,1,12, 1, 0, 7,10.00,11.00,Sunday
7,18.5
8,0.3
9,23.0
10,23.81
205,25.553124617060195
2,1,12, 1, 0, 7,11.00,12.00,Sunday
7,18.6
8,0.3
9,54.0
10,24.46
205,26.268860589946986
2,1,12, 1, 0, 7,12.00,13.00,Sunday
7,18.6
8,0.2
9,88.0
10,25.09
205,28.44600912502726
2,1,12, 1, 0, 7,13.00,14.00,Sunday
7,18.7
8,0.4
9,99.0
10,25.66
205,36.45804521111491
2,1,12, 1, 0, 7,14.00,15.00,Sunday
7,18.7
8,0.3
9,98.0
10,26.16
205,41.98395725570632
2,1,12, 1, 0, 7,15.00,16.00,Sunday
7,18.7
8,0.2
9,73.0
10,26.58
205,44.60333936999743
2,1,12, 1, 0, 7,16.00,17.00,Sunday
7,18.8
8,0.2
9,55.0
10,27.01
205,47.13068173709233
2,1,12, 1, 0, 7,17.00,18.00,Sunday
7,18.8
8,0.3
9,30.0
10,27.52
205,49.87603942130012
2,1,12, 1, 0, 7,18.00,19.00,Sunday
7,18.8
8,0.3
9,15.0
10,28.15
205,45.63516590764641
2,1,12, 1, 0, 7,19.00,20.00,Sunday
7,18.8
8,0.2
9,16.0
10,28.7
205,35.077418769328204
2,1,12, 1, 0, 7,20.00,21.00,Sunday
7,18.9
8,0.3
9,85.0
10,29.2
205,35.65663375564602
2,1,12, 1, 0, 7,21.00,22.00,Sunday
7,18.9
8,0.4
9,113.0
10,29.65
205,47.651153249413525
2,1,12, 1, 0, 7,22.00,23.00,Sunday
7,18.9
8,0.6
9,106.0
10,29.95
205,58.18195598988082
2,1,12, 1, 0, 7,23.00,24.00,Sunday
7,18.9
8,0.6
9,107.0
10,30.16
205,55.24309699128293
2,1,12, 1, 0, 7,24.00,25.00,Sunday
7,19.0
8,0.6
9,92.0
10,30.49
205,42.633956555357855
2,1,12, 1, 0, 7,25.00,26.00,Sunday
7,19.0
8,0.3
9,72.0
10,30.85
205,45.03154417818074
2,1,12, 1, 0, 7,26.00,27.00,Sunday
7,19.0
8,0.3
9,60.0
10,31.39
205,44.32435688838544
2,1,12, 1, 0, 7,27.00,28.00,Sunday
7,19.1
8,0.2
9,59.0
10,32.01
205,37.45991030742106
2,1,12, 1, 0, 7,28.00,29.00,Sunday
7,19.1
8,0.3
9,56.0
10,33.1
205,45.588261401679986
2,1,12, 1, 0, 7,29.00,30.00,Sunday
7,19.1
8,0.3
9,49.0
10,35.06
205,46.38749816799314
2,1,12, 1, 0, 7,30.00,31.00,Sunday
7,19.2
8,0.3
9,55.0
10,36.19
205,49.82294953533589
2,1,12, 1, 0, 7,31.00,32.00,Sunday
7,19.2
8,0.4
9,56.0
10,39.11
205,69.65675595545245
2,1,12, 1, 0, 7,32.00,33.00,Sunday
7,19.3
8,0.4
9,65.0
10,55.6
205,96.98138547042282
2,1,12, 1, 0, 7,33.00,34.00,Sunday
7,19.3
8,0.4
9,63.0
10,73.43
205,113.80150940767551
2,1,12, 1, 0, 7,34.00,35.00,Sunday
7,19.3
8,0.3
9,94.0
10,87.66
205,98.15986680263642
2,1,12, 1, 0, 7,35.00,36.00,Sunday
7,19.4
8,0.4
9,106.0
10,103.03
205,103.03
2,1,12, 1, 0, 7,36.00,37.00,Sunday
7,19.4
8,0.5
9,116.0
10,112.36
205,112.36
2,1,12, 1, 0, 7,37.00,38.00,Sunday
7,19.5
8,0.5
9,120.0
10,132.26
205,132.26
2,1,12, 1, 0, 7,38.00,39.00,Sunday
7,19.5
8,0.6
9,116.0
10,147.91
205,147.91
2,1,12, 1, 0, 7,39.00,40.00,Sunday
7,19.5
8,0.6
9,108.0
10,137.17
205,137.17
2,1,12, 1, 0, 7,40.00,41.00,Sunday
7,19.5
8,0.3
9,113.0
10,119.41
205,119.41
2,1,12, 1, 0, 7,41.00,42.00,Sunday
7,19.6
8,0.3
9,93.0